# vtk DataFile Version 3.0
vtk output
ASCII
DATASET STRUCTURED_POINTS
DIMENSIONS 60 50 3
ORIGIN 603995 4165513 0
SPACING 10 -10 100

POINT_DATA 9000
SCALARS RegRate float
LOOKUP_TABLE default
52.8808	45.3264	45.3264	45.3264	45.3264	53.8251	53.8251	53.8251	59.4909	59.4909	59.4909	59.4909	64.2124	64.2124	64.2124	64.2124	64.2124	64.2124	64.2124	64.2124	64.2124	64.2124	64.2124	64.2124	64.2124	65.1567	64.2124	64.2124	59.4909	58.5466	58.5466	59.4909	59.4909	59.4909	59.4909	59.4909	59.4909	64.2124	64.2124	72.7111	72.7111	72.7111	72.7111	78.3769	90.6528	99.1515	107.6502	112.3717	112.3717	112.3717	106.7059	106.7059	99.1515	99.1515	90.6528	84.987	84.987	78.3769	71.7668	64.2124	36.8277	32.1062	31.1619	32.1062	32.1062	36.8277	45.3264	44.3821	53.8251	59.4909	59.4909	59.4909	59.4909	64.2124	63.2681	73.6554	78.3769	78.3769	78.3769	78.3769	71.7668	72.7111	64.2124	64.2124	64.2124	64.2124	64.2124	64.2124	59.4909	59.4909	59.4909	59.4909	59.4909	59.4909	64.2124	64.2124	72.7111	72.7111	78.3769	78.3769	78.3769	78.3769	84.987	107.6502	126.5362	151.088	166.1968	179.417	179.417	174.6955	174.6955	160.531	152.0323	145.4222	131.2577	120.8704	107.6502	90.6528	84.987	72.7111	36.8277	32.1062	32.1062	32.1062	36.8277	36.8277	45.3264	52.8808	59.4909	64.2124	64.2124	64.2124	64.2124	72.7111	78.3769	85.9313	90.6528	99.1515	90.6528	89.7085	84.987	84.987	78.3769	72.7111	64.2124	64.2124	64.2124	65.1567	64.2124	59.4909	59.4909	59.4909	64.2124	64.2124	72.7111	78.3769	84.987	90.6528	99.1515	107.6502	112.3717	120.8704	127.4805	138.8121	152.0323	166.1968	174.6955	174.6955	174.6955	166.1968	159.5867	152.0323	144.4779	138.8121	131.2577	120.8704	112.3717	99.1515	90.6528	78.3769	36.8277	32.1062	32.1062	37.772	36.8277	45.3264	53.8251	59.4909	64.2124	72.7111	78.3769	78.3769	84.987	90.6528	107.6502	120.8704	121.8147	120.8704	112.3717	99.1515	90.6528	84.987	78.3769	78.3769	72.7111	73.6554	64.2124	64.2124	64.2124	64.2124	65.1567	64.2124	64.2124	64.2124	72.7111	78.3769	84.987	99.1515	112.3717	131.2577	151.088	179.417	197.3587	196.4144	197.3587	192.6372	191.6929	186.9714	179.417	174.6955	160.531	144.4779	138.8121	131.2577	126.5362	120.8704	112.3717	99.1515	90.6528	84.987	45.3264	36.8277	36.8277	36.8277	45.3264	53.8251	59.4909	63.2681	72.7111	84.987	84.0427	90.6528	99.1515	120.8704	131.2577	144.4779	138.8121	131.2577	112.3717	99.1515	84.987	78.3769	78.3769	78.3769	72.7111	72.7111	72.7111	64.2124	64.2124	64.2124	64.2124	64.2124	64.2124	64.2124	72.7111	72.7111	84.987	99.1515	121.8147	138.8121	174.6955	197.3587	220.0219	227.5763	220.0219	205.8574	197.3587	187.9157	179.417	166.1968	160.531	144.4779	131.2577	120.8704	120.8704	112.3717	107.6502	99.1515	90.6528	84.0427	45.3264	45.3264	36.8277	45.3264	53.8251	53.8251	59.4909	72.7111	78.3769	84.987	90.6528	107.6502	112.3717	126.5362	138.8121	144.4779	138.8121	126.5362	107.6502	90.6528	84.987	78.3769	79.3212	78.3769	72.7111	72.7111	72.7111	64.2124	64.2124	64.2124	64.2124	64.2124	64.2124	64.2124	64.2124	73.6554	78.3769	89.7085	111.4274	131.2577	160.531	186.9714	197.3587	214.3561	205.8574	192.6372	186.9714	179.417	166.1968	160.531	152.9766	138.8121	126.5362	112.3717	107.6502	107.6502	107.6502	99.1515	99.1515	90.6528	53.8251	53.8251	53.8251	53.8251	59.4909	59.4909	64.2124	64.2124	72.7111	78.3769	90.6528	99.1515	112.3717	127.4805	132.202	126.5362	112.3717	99.1515	84.987	84.987	78.3769	78.3769	78.3769	72.7111	72.7111	72.7111	64.2124	64.2124	64.2124	64.2124	64.2124	64.2124	64.2124	64.2124	64.2124	72.7111	72.7111	84.0427	99.1515	120.8704	138.8121	152.0323	160.531	160.531	160.531	152.0323	143.5336	145.4222	138.8121	138.8121	138.8121	131.2577	120.8704	111.4274	107.6502	99.1515	99.1515	99.1515	99.1515	99.1515	59.4909	59.4909	59.4909	59.4909	59.4909	59.4909	64.2124	64.2124	65.1567	72.7111	78.3769	90.6528	99.1515	107.6502	112.3717	107.6502	99.1515	84.987	72.7111	72.7111	72.7111	72.7111	72.7111	72.7111	72.7111	72.7111	64.2124	64.2124	64.2124	64.2124	64.2124	64.2124	64.2124	65.1567	72.7111	72.7111	78.3769	78.3769	90.6528	99.1515	112.3717	120.8704	120.8704	120.8704	120.8704	112.3717	112.3717	112.3717	112.3717	120.8704	120.8704	120.8704	112.3717	107.6502	107.6502	99.1515	99.1515	99.1515	99.1515	99.1515	59.4909	64.2124	64.2124	64.2124	59.4909	59.4909	59.4909	64.2124	64.2124	65.1567	72.7111	72.7111	78.3769	85.9313	84.987	84.987	78.3769	72.7111	64.2124	64.2124	64.2124	64.2124	64.2124	64.2124	64.2124	64.2124	64.2124	63.2681	64.2124	64.2124	64.2124	64.2124	65.1567	64.2124	72.7111	72.7111	78.3769	78.3769	84.987	90.6528	99.1515	99.1515	106.7059	99.1515	99.1515	90.6528	90.6528	90.6528	90.6528	99.1515	107.6502	112.3717	112.3717	107.6502	107.6502	99.1515	99.1515	99.1515	107.6502	107.6502	64.2124	64.2124	64.2124	58.5466	59.4909	59.4909	59.4909	58.5466	59.4909	59.4909	59.4909	64.2124	64.2124	64.2124	64.2124	59.4909	60.4352	53.8251	59.4909	59.4909	59.4909	59.4909	64.2124	64.2124	64.2124	64.2124	64.2124	64.2124	64.2124	64.2124	64.2124	64.2124	64.2124	64.2124	72.7111	72.7111	72.7111	78.3769	78.3769	84.987	84.987	84.987	90.6528	84.987	84.987	84.987	78.3769	78.3769	84.987	84.987	100.0958	100.0958	107.6502	107.6502	107.6502	99.1515	99.1515	107.6502	107.6502	107.6502	65.1567	64.2124	59.4909	59.4909	59.4909	59.4909	59.4909	59.4909	53.8251	53.8251	53.8251	53.8251	53.8251	53.8251	53.8251	53.8251	45.3264	45.3264	54.7694	54.7694	53.8251	59.4909	59.4909	64.2124	64.2124	63.2681	64.2124	64.2124	64.2124	64.2124	65.1567	64.2124	65.1567	63.2681	64.2124	64.2124	72.7111	72.7111	72.7111	78.3769	78.3769	78.3769	78.3769	78.3769	78.3769	78.3769	72.7111	78.3769	78.3769	84.987	84.987	90.6528	99.1515	107.6502	107.6502	107.6502	99.1515	107.6502	107.6502	112.3717	64.2124	64.2124	59.4909	58.5466	59.4909	59.4909	59.4909	53.8251	53.8251	45.3264	45.3264	45.3264	45.3264	45.3264	44.3821	45.3264	45.3264	45.3264	45.3264	54.7694	53.8251	59.4909	59.4909	59.4909	64.2124	64.2124	64.2124	64.2124	64.2124	58.5466	59.4909	59.4909	64.2124	64.2124	64.2124	63.2681	64.2124	64.2124	64.2124	72.7111	72.7111	72.7111	71.7668	72.7111	72.7111	72.7111	72.7111	72.7111	72.7111	72.7111	77.4326	84.987	90.6528	99.1515	107.6502	107.6502	107.6502	107.6502	112.3717	112.3717	72.7111	72.7111	72.7111	72.7111	72.7111	64.2124	59.4909	59.4909	53.8251	53.8251	45.3264	45.3264	45.3264	45.3264	45.3264	45.3264	45.3264	45.3264	53.8251	53.8251	59.4909	59.4909	59.4909	59.4909	63.2681	63.2681	64.2124	64.2124	59.4909	59.4909	59.4909	59.4909	59.4909	59.4909	59.4909	59.4909	59.4909	59.4909	64.2124	64.2124	64.2124	64.2124	63.2681	63.2681	64.2124	64.2124	72.7111	72.7111	71.7668	78.3769	77.4326	84.987	90.6528	99.1515	107.6502	107.6502	113.316	112.3717	119.9261	120.8704	72.7111	78.3769	78.3769	84.987	78.3769	72.7111	64.2124	59.4909	53.8251	53.8251	45.3264	45.3264	45.3264	45.3264	45.3264	44.3821	45.3264	53.8251	53.8251	54.7694	59.4909	59.4909	59.4909	59.4909	64.2124	64.2124	64.2124	64.2124	58.5466	59.4909	59.4909	59.4909	59.4909	59.4909	59.4909	59.4909	59.4909	59.4909	60.4352	59.4909	59.4909	64.2124	64.2124	64.2124	64.2124	64.2124	64.2124	72.7111	72.7111	78.3769	78.3769	84.987	84.987	90.6528	99.1515	99.1515	107.6502	112.3717	112.3717	112.3717	72.7111	84.987	84.987	90.6528	84.987	73.6554	64.2124	59.4909	54.7694	53.8251	53.8251	45.3264	45.3264	45.3264	45.3264	53.8251	53.8251	53.8251	53.8251	53.8251	59.4909	59.4909	64.2124	64.2124	64.2124	64.2124	64.2124	64.2124	59.4909	59.4909	59.4909	59.4909	53.8251	53.8251	53.8251	53.8251	53.8251	53.8251	53.8251	53.8251	59.4909	59.4909	59.4909	59.4909	59.4909	64.2124	64.2124	64.2124	64.2124	72.7111	72.7111	72.7111	72.7111	78.3769	84.987	84.987	90.6528	90.6528	90.6528	90.6528	79.3212	84.987	91.5971	84.987	84.987	72.7111	63.2681	59.4909	59.4909	53.8251	53.8251	53.8251	53.8251	53.8251	53.8251	53.8251	53.8251	52.8808	59.4909	59.4909	64.2124	64.2124	64.2124	64.2124	64.2124	64.2124	64.2124	64.2124	59.4909	59.4909	59.4909	53.8251	53.8251	53.8251	53.8251	45.3264	45.3264	45.3264	45.3264	45.3264	53.8251	53.8251	54.7694	59.4909	59.4909	59.4909	59.4909	59.4909	64.2124	64.2124	64.2124	64.2124	64.2124	63.2681	72.7111	72.7111	72.7111	73.6554	72.7111	72.7111	73.6554	78.3769	84.987	84.0427	78.3769	72.7111	64.2124	59.4909	59.4909	53.8251	59.4909	59.4909	59.4909	59.4909	59.4909	59.4909	59.4909	59.4909	64.2124	63.2681	64.2124	64.2124	64.2124	64.2124	64.2124	64.2124	64.2124	64.2124	59.4909	59.4909	59.4909	53.8251	53.8251	53.8251	45.3264	45.3264	36.8277	36.8277	36.8277	45.3264	45.3264	53.8251	53.8251	53.8251	53.8251	53.8251	52.8808	59.4909	59.4909	59.4909	59.4909	59.4909	59.4909	59.4909	59.4909	59.4909	59.4909	59.4909	59.4909	59.4909	64.2124	72.7111	72.7111	72.7111	72.7111	64.2124	59.4909	59.4909	53.8251	59.4909	59.4909	64.2124	64.2124	64.2124	64.2124	59.4909	58.5466	59.4909	64.2124	64.2124	64.2124	64.2124	64.2124	64.2124	65.1567	64.2124	64.2124	59.4909	59.4909	59.4909	59.4909	53.8251	53.8251	45.3264	36.8277	36.8277	32.1062	32.1062	36.8277	36.8277	35.8834	45.3264	45.3264	45.3264	45.3264	53.8251	52.8808	53.8251	53.8251	53.8251	54.7694	45.3264	44.3821	45.3264	45.3264	45.3264	45.3264	45.3264	45.3264	45.3264	59.4909	59.4909	64.2124	64.2124	59.4909	59.4909	53.8251	53.8251	54.7694	53.8251	59.4909	64.2124	64.2124	64.2124	64.2124	59.4909	59.4909	60.4352	59.4909	64.2124	64.2124	59.4909	60.4352	59.4909	59.4909	58.5466	59.4909	59.4909	59.4909	59.4909	59.4909	59.4909	45.3264	36.8277	32.1062	32.1062	24.5518	24.5518	24.5518	33.0505	32.1062	36.8277	36.8277	36.8277	36.8277	45.3264	46.2707	45.3264	45.3264	45.3264	36.8277	36.8277	36.8277	32.1062	32.1062	32.1062	32.1062	32.1062	32.1062	32.1062	45.3264	45.3264	53.8251	53.8251	53.8251	45.3264	45.3264	45.3264	45.3264	53.8251	59.4909	59.4909	64.2124	64.2124	59.4909	59.4909	53.8251	53.8251	59.4909	59.4909	59.4909	60.4352	53.8251	53.8251	60.4352	59.4909	59.4909	59.4909	59.4909	59.4909	59.4909	53.8251	44.3821	36.8277	32.1062	24.5518	24.5518	18.886	18.886	24.5518	24.5518	24.5518	32.1062	32.1062	36.8277	36.8277	36.8277	36.8277	36.8277	36.8277	32.1062	32.1062	24.5518	24.5518	24.5518	24.5518	24.5518	24.5518	24.5518	24.5518	36.8277	32.1062	35.8834	36.8277	36.8277	36.8277	36.8277	36.8277	36.8277	45.3264	53.8251	60.4352	59.4909	59.4909	53.8251	53.8251	45.3264	46.2707	45.3264	44.3821	45.3264	45.3264	45.3264	45.3264	54.7694	53.8251	53.8251	54.7694	53.8251	53.8251	53.8251	45.3264	36.8277	36.8277	32.1062	24.5518	18.886	18.886	18.886	18.886	18.886	19.8303	24.5518	24.5518	32.1062	32.1062	32.1062	32.1062	33.0505	32.1062	24.5518	25.4961	24.5518	24.5518	24.5518	24.5518	24.5518	23.6075	24.5518	24.5518	23.6075	25.4961	24.5518	32.1062	32.1062	32.1062	32.1062	32.1062	36.8277	45.3264	45.3264	53.8251	44.3821	45.3264	45.3264	45.3264	36.8277	37.772	36.8277	32.1062	32.1062	32.1062	36.8277	36.8277	46.2707	45.3264	45.3264	45.3264	45.3264	45.3264	45.3264	45.3264	36.8277	37.772	32.1062	25.4961	18.886	17.9417	18.886	18.886	18.886	18.886	18.886	24.5518	24.5518	24.5518	24.5518	24.5518	23.6075	24.5518	24.5518	24.5518	23.6075	24.5518	24.5518	23.6075	18.886	18.886	17.9417	18.886	18.886	10.3873	18.886	18.886	24.5518	32.1062	32.1062	36.8277	45.3264	45.3264	45.3264	45.3264	45.3264	36.8277	36.8277	36.8277	32.1062	32.1062	32.1062	24.5518	23.6075	24.5518	24.5518	33.0505	32.1062	31.1619	32.1062	36.8277	36.8277	36.8277	36.8277	36.8277	37.772	36.8277	36.8277	32.1062	32.1062	32.1062	24.5518	24.5518	18.886	18.886	18.886	18.886	18.886	18.886	18.886	17.9417	24.5518	24.5518	24.5518	25.4961	23.6075	24.5518	24.5518	24.5518	18.886	18.886	18.886	18.886	24.5518	9.443	10.3873	10.3873	18.886	24.5518	36.8277	53.8251	53.8251	53.8251	45.3264	45.3264	36.8277	36.8277	36.8277	36.8277	32.1062	32.1062	24.5518	24.5518	18.886	18.886	17.9417	24.5518	24.5518	24.5518	24.5518	24.5518	24.5518	32.1062	32.1062	32.1062	36.8277	36.8277	36.8277	45.3264	45.3264	36.8277	32.1062	24.5518	24.5518	18.886	18.886	18.886	18.886	18.886	18.886	18.886	24.5518	24.5518	24.5518	24.5518	24.5518	24.5518	24.5518	24.5518	24.5518	23.6075	24.5518	24.5518	32.1062	18.886	18.886	18.886	18.886	24.5518	35.8834	45.3264	46.2707	45.3264	45.3264	36.8277	36.8277	37.772	36.8277	32.1062	33.0505	23.6075	24.5518	24.5518	18.886	18.886	18.886	18.886	18.886	17.9417	18.886	24.5518	24.5518	24.5518	24.5518	32.1062	32.1062	36.8277	45.3264	45.3264	45.3264	36.8277	32.1062	24.5518	24.5518	24.5518	24.5518	24.5518	24.5518	24.5518	24.5518	24.5518	24.5518	24.5518	32.1062	32.1062	32.1062	32.1062	24.5518	24.5518	24.5518	24.5518	24.5518	25.4961	45.3264	32.1062	24.5518	17.9417	24.5518	32.1062	35.8834	36.8277	45.3264	45.3264	36.8277	35.8834	32.1062	32.1062	31.1619	32.1062	32.1062	24.5518	24.5518	24.5518	18.886	18.886	18.886	18.886	18.886	18.886	18.886	18.886	18.886	24.5518	24.5518	24.5518	33.0505	32.1062	36.8277	45.3264	36.8277	32.1062	24.5518	24.5518	24.5518	32.1062	32.1062	32.1062	32.1062	32.1062	32.1062	32.1062	32.1062	32.1062	32.1062	32.1062	32.1062	32.1062	32.1062	33.0505	32.1062	32.1062	33.0505	32.1062	59.4909	45.3264	36.8277	36.8277	36.8277	37.772	36.8277	36.8277	45.3264	36.8277	36.8277	32.1062	33.0505	32.1062	24.5518	24.5518	24.5518	24.5518	23.6075	24.5518	24.5518	24.5518	23.6075	18.886	18.886	18.886	18.886	18.886	18.886	18.886	24.5518	24.5518	24.5518	24.5518	24.5518	24.5518	24.5518	24.5518	24.5518	24.5518	32.1062	36.8277	45.3264	45.3264	45.3264	36.8277	36.8277	36.8277	32.1062	32.1062	32.1062	32.1062	31.1619	36.8277	36.8277	36.8277	36.8277	36.8277	36.8277	36.8277	64.2124	59.4909	59.4909	53.8251	53.8251	45.3264	45.3264	36.8277	36.8277	36.8277	36.8277	32.1062	32.1062	24.5518	24.5518	23.6075	24.5518	24.5518	24.5518	23.6075	24.5518	24.5518	24.5518	24.5518	24.5518	24.5518	18.886	18.886	18.886	17.9417	18.886	24.5518	18.886	18.886	17.9417	18.886	18.886	18.886	18.886	24.5518	32.1062	45.3264	54.7694	59.4909	59.4909	53.8251	45.3264	45.3264	45.3264	36.8277	36.8277	37.772	36.8277	36.8277	46.2707	45.3264	45.3264	45.3264	45.3264	45.3264	64.2124	64.2124	64.2124	64.2124	59.4909	53.8251	45.3264	36.8277	36.8277	32.1062	32.1062	32.1062	32.1062	23.6075	24.5518	24.5518	24.5518	24.5518	24.5518	25.4961	24.5518	23.6075	32.1062	32.1062	24.5518	24.5518	23.6075	24.5518	24.5518	18.886	18.886	18.886	18.886	18.886	18.886	18.886	17.9417	18.886	24.5518	32.1062	36.8277	53.8251	59.4909	64.2124	64.2124	58.5466	53.8251	54.7694	45.3264	45.3264	36.8277	36.8277	36.8277	45.3264	53.8251	59.4909	59.4909	53.8251	53.8251	53.8251	64.2124	64.2124	64.2124	64.2124	59.4909	45.3264	36.8277	35.8834	32.1062	32.1062	32.1062	32.1062	32.1062	24.5518	24.5518	24.5518	24.5518	24.5518	24.5518	24.5518	24.5518	32.1062	32.1062	31.1619	32.1062	24.5518	24.5518	24.5518	24.5518	24.5518	18.886	18.886	17.9417	17.9417	17.9417	24.5518	32.1062	32.1062	36.8277	45.3264	53.8251	59.4909	64.2124	64.2124	64.2124	64.2124	58.5466	59.4909	53.8251	45.3264	45.3264	36.8277	36.8277	36.8277	45.3264	53.8251	59.4909	53.8251	53.8251	53.8251	64.2124	64.2124	60.4352	59.4909	53.8251	45.3264	35.8834	32.1062	32.1062	23.6075	32.1062	32.1062	32.1062	33.0505	32.1062	32.1062	24.5518	24.5518	24.5518	32.1062	31.1619	32.1062	33.0505	32.1062	32.1062	32.1062	32.1062	32.1062	24.5518	24.5518	24.5518	17.9417	18.886	18.886	23.6075	32.1062	45.3264	53.8251	59.4909	64.2124	64.2124	72.7111	72.7111	64.2124	64.2124	64.2124	64.2124	64.2124	59.4909	53.8251	44.3821	45.3264	36.8277	36.8277	45.3264	45.3264	45.3264	45.3264	53.8251	53.8251	65.1567	59.4909	59.4909	53.8251	45.3264	45.3264	36.8277	32.1062	32.1062	32.1062	32.1062	32.1062	32.1062	32.1062	32.1062	32.1062	32.1062	32.1062	32.1062	32.1062	32.1062	32.1062	32.1062	32.1062	32.1062	32.1062	32.1062	32.1062	32.1062	33.0505	24.5518	24.5518	24.5518	24.5518	32.1062	36.8277	45.3264	59.4909	64.2124	72.7111	72.7111	72.7111	72.7111	64.2124	64.2124	64.2124	64.2124	64.2124	64.2124	59.4909	59.4909	53.8251	45.3264	45.3264	36.8277	36.8277	36.8277	36.8277	45.3264	45.3264	64.2124	64.2124	59.4909	53.8251	52.8808	45.3264	36.8277	36.8277	32.1062	32.1062	33.0505	32.1062	32.1062	36.8277	35.8834	35.8834	45.3264	36.8277	36.8277	36.8277	36.8277	36.8277	36.8277	36.8277	36.8277	36.8277	37.772	36.8277	36.8277	32.1062	32.1062	32.1062	36.8277	36.8277	44.3821	53.8251	53.8251	59.4909	64.2124	71.7668	72.7111	72.7111	64.2124	63.2681	59.4909	64.2124	63.2681	64.2124	64.2124	72.7111	72.7111	64.2124	64.2124	59.4909	45.3264	36.8277	36.8277	36.8277	36.8277	45.3264	73.6554	72.7111	64.2124	59.4909	53.8251	53.8251	45.3264	45.3264	36.8277	36.8277	36.8277	36.8277	36.8277	36.8277	36.8277	45.3264	45.3264	45.3264	53.8251	45.3264	45.3264	45.3264	45.3264	36.8277	36.8277	36.8277	36.8277	35.8834	36.8277	36.8277	45.3264	46.2707	45.3264	53.8251	53.8251	59.4909	59.4909	64.2124	64.2124	72.7111	64.2124	64.2124	59.4909	53.8251	54.7694	53.8251	59.4909	64.2124	64.2124	72.7111	78.3769	78.3769	79.3212	72.7111	59.4909	45.3264	36.8277	36.8277	36.8277	45.3264	72.7111	73.6554	72.7111	64.2124	52.8808	53.8251	53.8251	54.7694	45.3264	45.3264	45.3264	46.2707	45.3264	45.3264	45.3264	45.3264	53.8251	53.8251	53.8251	53.8251	53.8251	53.8251	44.3821	45.3264	45.3264	45.3264	45.3264	45.3264	45.3264	44.3821	53.8251	53.8251	59.4909	59.4909	59.4909	60.4352	59.4909	64.2124	64.2124	63.2681	60.4352	53.8251	45.3264	45.3264	46.2707	45.3264	53.8251	59.4909	59.4909	64.2124	72.7111	78.3769	78.3769	72.7111	59.4909	54.7694	45.3264	36.8277	36.8277	45.3264	72.7111	78.3769	78.3769	71.7668	59.4909	53.8251	53.8251	53.8251	53.8251	52.8808	53.8251	45.3264	44.3821	45.3264	45.3264	45.3264	54.7694	53.8251	59.4909	59.4909	59.4909	53.8251	53.8251	54.7694	45.3264	44.3821	45.3264	52.8808	53.8251	53.8251	59.4909	59.4909	64.2124	59.4909	59.4909	53.8251	53.8251	59.4909	58.5466	59.4909	53.8251	45.3264	36.8277	32.1062	32.1062	33.0505	32.1062	36.8277	45.3264	54.7694	59.4909	64.2124	64.2124	64.2124	59.4909	53.8251	45.3264	36.8277	44.3821	45.3264	90.6528	90.6528	84.987	78.3769	64.2124	59.4909	59.4909	59.4909	64.2124	59.4909	53.8251	53.8251	53.8251	45.3264	45.3264	45.3264	53.8251	53.8251	59.4909	60.4352	59.4909	58.5466	53.8251	53.8251	53.8251	53.8251	53.8251	53.8251	53.8251	59.4909	59.4909	64.2124	64.2124	59.4909	53.8251	45.3264	45.3264	45.3264	45.3264	45.3264	45.3264	36.8277	32.1062	24.5518	25.4961	24.5518	24.5518	24.5518	32.1062	32.1062	36.8277	45.3264	53.8251	53.8251	53.8251	53.8251	53.8251	53.8251	52.8808	53.8251	99.1515	99.1515	84.987	78.3769	72.7111	59.4909	59.4909	59.4909	64.2124	59.4909	59.4909	53.8251	53.8251	45.3264	45.3264	45.3264	53.8251	53.8251	53.8251	59.4909	59.4909	59.4909	53.8251	53.8251	53.8251	53.8251	53.8251	54.7694	59.4909	59.4909	59.4909	64.2124	59.4909	53.8251	45.3264	35.8834	32.1062	32.1062	32.1062	32.1062	32.1062	24.5518	24.5518	18.886	18.886	18.886	18.886	18.886	23.6075	24.5518	32.1062	36.8277	36.8277	45.3264	45.3264	53.8251	59.4909	59.4909	59.4909	58.5466	99.1515	107.6502	90.6528	78.3769	71.7668	59.4909	59.4909	59.4909	59.4909	53.8251	53.8251	53.8251	53.8251	45.3264	45.3264	45.3264	45.3264	45.3264	53.8251	53.8251	59.4909	59.4909	53.8251	53.8251	53.8251	53.8251	53.8251	59.4909	59.4909	59.4909	59.4909	59.4909	53.8251	45.3264	36.8277	32.1062	24.5518	24.5518	18.886	18.886	18.886	18.886	18.886	18.886	18.886	10.3873	10.3873	18.886	18.886	24.5518	24.5518	32.1062	36.8277	36.8277	45.3264	53.8251	59.4909	64.2124	64.2124	59.4909	90.6528	99.1515	90.6528	78.3769	72.7111	59.4909	53.8251	53.8251	53.8251	53.8251	53.8251	53.8251	45.3264	45.3264	45.3264	45.3264	45.3264	45.3264	45.3264	53.8251	52.8808	53.8251	53.8251	54.7694	53.8251	53.8251	59.4909	59.4909	59.4909	59.4909	59.4909	59.4909	53.8251	44.3821	36.8277	24.5518	18.886	19.8303	10.3873	10.3873	10.3873	10.3873	10.3873	10.3873	10.3873	10.3873	10.3873	18.886	18.886	24.5518	24.5518	32.1062	31.1619	35.8834	45.3264	53.8251	59.4909	64.2124	64.2124	64.2124	84.987	84.987	78.3769	72.7111	72.7111	59.4909	53.8251	53.8251	53.8251	53.8251	53.8251	53.8251	45.3264	45.3264	36.8277	36.8277	36.8277	36.8277	37.772	45.3264	45.3264	45.3264	53.8251	53.8251	53.8251	59.4909	59.4909	59.4909	64.2124	64.2124	64.2124	64.2124	59.4909	45.3264	36.8277	32.1062	24.5518	18.886	10.3873	10.3873	10.3873	10.3873	10.3873	10.3873	10.3873	10.3873	10.3873	18.886	18.886	24.5518	24.5518	32.1062	32.1062	36.8277	45.3264	53.8251	59.4909	64.2124	64.2124	64.2124	72.7111	72.7111	72.7111	72.7111	64.2124	64.2124	53.8251	53.8251	45.3264	53.8251	53.8251	45.3264	45.3264	36.8277	36.8277	36.8277	36.8277	36.8277	36.8277	36.8277	36.8277	45.3264	54.7694	53.8251	53.8251	58.5466	59.4909	64.2124	64.2124	64.2124	64.2124	64.2124	64.2124	59.4909	53.8251	45.3264	36.8277	32.1062	24.5518	18.886	10.3873	10.3873	10.3873	10.3873	10.3873	10.3873	10.3873	18.886	18.886	24.5518	24.5518	32.1062	32.1062	36.8277	45.3264	53.8251	59.4909	64.2124	72.7111	72.7111	59.4909	65.1567	64.2124	64.2124	64.2124	59.4909	53.8251	45.3264	45.3264	36.8277	35.8834	37.772	36.8277	36.8277	36.8277	36.8277	36.8277	36.8277	36.8277	36.8277	36.8277	45.3264	53.8251	53.8251	59.4909	65.1567	64.2124	63.2681	64.2124	63.2681	64.2124	64.2124	64.2124	72.7111	72.7111	72.7111	72.7111	64.2124	53.8251	32.1062	24.5518	18.886	18.886	10.3873	10.3873	10.3873	18.886	18.886	18.886	24.5518	24.5518	32.1062	32.1062	36.8277	45.3264	53.8251	59.4909	64.2124	72.7111	72.7111	54.7694	53.8251	53.8251	53.8251	53.8251	53.8251	45.3264	35.8834	32.1062	32.1062	32.1062	32.1062	36.8277	36.8277	36.8277	36.8277	36.8277	36.8277	36.8277	36.8277	45.3264	44.3821	53.8251	60.4352	64.2124	64.2124	64.2124	59.4909	59.4909	59.4909	64.2124	64.2124	72.7111	72.7111	78.3769	84.987	90.6528	91.5971	78.3769	53.8251	32.1062	24.5518	24.5518	18.886	18.886	18.886	18.886	18.886	24.5518	24.5518	33.0505	32.1062	36.8277	36.8277	46.2707	53.8251	53.8251	59.4909	64.2124	72.7111	45.3264	45.3264	44.3821	45.3264	45.3264	36.8277	36.8277	32.1062	32.1062	24.5518	24.5518	32.1062	32.1062	36.8277	36.8277	35.8834	36.8277	36.8277	36.8277	36.8277	45.3264	45.3264	53.8251	59.4909	59.4909	59.4909	59.4909	53.8251	53.8251	53.8251	53.8251	60.4352	64.2124	63.2681	72.7111	78.3769	84.987	84.987	78.3769	64.2124	45.3264	32.1062	24.5518	24.5518	24.5518	24.5518	24.5518	24.5518	32.1062	32.1062	32.1062	36.8277	36.8277	35.8834	45.3264	53.8251	52.8808	59.4909	64.2124	72.7111	45.3264	36.8277	46.2707	36.8277	36.8277	36.8277	33.0505	32.1062	24.5518	23.6075	24.5518	32.1062	32.1062	36.8277	36.8277	45.3264	45.3264	46.2707	45.3264	36.8277	36.8277	45.3264	45.3264	45.3264	53.8251	53.8251	45.3264	45.3264	45.3264	45.3264	45.3264	45.3264	45.3264	53.8251	60.4352	64.2124	72.7111	72.7111	72.7111	64.2124	60.4352	45.3264	32.1062	32.1062	32.1062	32.1062	32.1062	33.0505	36.8277	36.8277	36.8277	36.8277	36.8277	36.8277	45.3264	53.8251	59.4909	59.4909	64.2124	72.7111	36.8277	36.8277	36.8277	35.8834	36.8277	32.1062	32.1062	23.6075	24.5518	24.5518	32.1062	32.1062	36.8277	36.8277	45.3264	45.3264	45.3264	45.3264	45.3264	36.8277	36.8277	36.8277	36.8277	36.8277	37.772	36.8277	32.1062	32.1062	32.1062	32.1062	32.1062	32.1062	32.1062	35.8834	45.3264	53.8251	59.4909	65.1567	64.2124	64.2124	59.4909	53.8251	36.8277	36.8277	35.8834	37.772	36.8277	45.3264	45.3264	36.8277	36.8277	35.8834	36.8277	36.8277	45.3264	46.2707	53.8251	59.4909	64.2124	72.7111	36.8277	37.772	36.8277	36.8277	36.8277	32.1062	32.1062	32.1062	32.1062	32.1062	36.8277	37.772	36.8277	45.3264	45.3264	45.3264	53.8251	53.8251	45.3264	36.8277	36.8277	32.1062	32.1062	31.1619	24.5518	24.5518	25.4961	24.5518	25.4961	24.5518	24.5518	24.5518	24.5518	33.0505	36.8277	45.3264	45.3264	53.8251	53.8251	53.8251	53.8251	45.3264	45.3264	37.772	36.8277	36.8277	36.8277	36.8277	45.3264	36.8277	36.8277	32.1062	32.1062	32.1062	32.1062	36.8277	45.3264	53.8251	59.4909	72.7111	36.8277	32.1062	36.8277	36.8277	45.3264	45.3264	45.3264	45.3264	44.3821	45.3264	45.3264	45.3264	45.3264	45.3264	45.3264	53.8251	53.8251	53.8251	45.3264	35.8834	36.8277	32.1062	32.1062	24.5518	24.5518	24.5518	24.5518	18.886	18.886	18.886	18.886	24.5518	24.5518	32.1062	31.1619	36.8277	36.8277	36.8277	36.8277	37.772	36.8277	36.8277	36.8277	32.1062	32.1062	32.1062	31.1619	32.1062	32.1062	32.1062	32.1062	24.5518	24.5518	24.5518	24.5518	32.1062	36.8277	44.3821	59.4909	64.2124	36.8277	32.1062	36.8277	46.2707	53.8251	58.5466	59.4909	59.4909	60.4352	53.8251	53.8251	53.8251	45.3264	45.3264	53.8251	53.8251	53.8251	53.8251	53.8251	45.3264	36.8277	32.1062	33.0505	24.5518	24.5518	24.5518	18.886	18.886	18.886	18.886	18.886	24.5518	24.5518	32.1062	31.1619	36.8277	36.8277	36.8277	32.1062	31.1619	32.1062	32.1062	32.1062	32.1062	32.1062	32.1062	24.5518	24.5518	24.5518	24.5518	18.886	19.8303	18.886	18.886	25.4961	24.5518	31.1619	45.3264	53.8251	64.2124